<?xml version="1.0"?>
<VTKFile type="UnstructuredGrid"  version="0.1"  >
<UnstructuredGrid>
<Piece  NumberOfPoints="1325" NumberOfCells="2515">
<Points>
<DataArray  type="Float64"  NumberOfComponents="3"  format="ascii">0 230 0  0 0 0  460 0 0  460 230 0  230 0 0  230 230 0  115 0 0  115 230 0  0 115 0  460 115 0  345 230 0  345 0 0  172.5 115 0  345 115 0  86.25 86.25 0  258.75 143.75 0  64.6875 165.3125 0  460 57.5 0  402.5 0 0  460 172.5 0  402.5 230 0  287.5 0 0  234.1071428571429 73.92857142857143 0  172.5 0 0  392.9166666666667 67.08333333333333 0  130.625 165.9375 0  201.25 172.5 0  300.2881493506493 65.48092532467533 0  402.5 143.75 0  143.75 57.5 0  287.5 230 0  316.25 172.5 0  57.5 0 0  0 57.5 0  0 172.5 0  57.5 230 0  172.5 230 0  367.5892857142857 182.7678571428571 0  201.25 38.67559523809524 0  346.8961808638274 49.30034700202805 0  123.7226625200642 117.5820124398074 0  258.75 35.48115079365079 0  50.3125 50.3125 0  273.125 186.875 0  41.328125 95.234375 0  100.625 43.125 0  296.6528385471387 113.7085156414161 0  215.625 129.375 0  416.875 186.875 0  429.8809523809524 86.25 0  70.52734375 124.43359375 0  32.568359375 139.8674665178571 0  86.25 200.4513888888889 0  181.2141106442577 74.70544467787116 0  35.21875 194.78125 0  422.8645833333333 37.13541666666666 0  384.9305555555555 107.0138888888889 0  316.25 0 0  164.0228594080338 189.8239297040169 0  165.7434255567559 152.1266888012594 0  380.3877426731993 31.06729657236181 0  269.4573394071954 87.40776000136576 0  234.7916666666667 191.6666666666667 0  100.2920897437506 145.5968978010491 0  347.0535714285714 151.9642857142857 0  28.75 0 0  359.2708260235183 82.534685673147 0  245.3688359331181 112.0184922006456 0  315.6600014998808 34.54209984979183 0  321.4415603742015 91.32623900585885 0  131.4500539676492 200.0754704799144 0  207.9794349462292 96.02290688683831 0  230.7986111111111 159.7222222222222 0  292.7221614528613 147.6806770942774 0  301.875 201.25 0  120.6523374799358 83.17967495987159 0  167.7436557363159 33.55932786815794 0  337.9265873015873 197.5992063492064 0  201.25 230 0  129.375 28.75 0  426.5225074404762 119.9200148809524 0  431.25 158.125 0  0 28.75 0  320.3107296073595 133.6592779598263 0  152.2531717958044 88.37567322002036 0  258.75 230 0  86.25 0 0  72.85511363636364 28.42329545454545 0  460 201.25 0  431.25 230 0  369.202806122449 132.1945861678005 0  390.7890926640927 202.1380308880309 0  229.5911871693122 29.71974206349206 0  316.25 230 0  143.75 230 0  373.75 0 0  431.25 0 0  143.75 0 0  86.25 230 0  0 143.75 0  460 86.25 0  0 86.25 0  258.75 0 0  201.25 0 0  28.75 230 0  0 201.25 0  460 28.75 0  191.9845478581877 201.25 0  460 143.75 0  373.75 230 0  287.2828760384982 39.73115924861519 0  92.04484368301632 172.7102505935026 0  24.765625 71.875 0  27.7441403744612 167.6211571500452 0  192.9804269826047 145.7851423275349 0  23.61607142857143 43.125 0  43.125 23.57940051020408 0  148.8301597497602 129.8705456880701 0  96.04354932399447 112.6114522951742 0  258.6863918612702 62.5615056614462 0  207.58339481858 69.05871002689001 0  393.405612244898 170.7397959183673 0  60.05555555555556 203.7256944444444 0  270.7759399304676 119.9914963216453 0  77.265625 59.296875 0  61.54296875 79.51171875 0  254.6770833333333 169.0659722222222 0  371.667600566238 157.8019567653651 0  418.5863095238095 62.80505952380953 0  404.4096223500586 90.14581335890063 0  369.2466580677643 59.89924393825848 0  339.3177051692185 24.90519015747709 0  323.7518667564576 57.85065553664543 0  124.6058292470568 142.1263168200971 0  297.2993418737627 89.5064411026471 0  361.4588394881762 207.5853377065112 0  113.8099973077875 183.4228439605311 0  216.1516965381596 208.8028162339366 0  187.0590067316244 19.33779761904762 0  339.6378968253968 174.2113095238095 0  25.53978381746477 115.3118775274263 0  48.5789923666666 117.1827263833334 0  68.8427734375 101.4111328125 0  273.125 17.74057539682539 0  94.44094967532467 21.22801677489177 0  438.4375 179.6875 0  434.84375 204.84375 0  122.1875 50.3125 0  99.7265625 66.78385416666667 0  280.3125 208.4375 0  255.6169871794872 205.3044871794872 0  292.0764192735693 171.854257820708 0  236.7881944444444 137.7604166666667 0  196.0193372096805 116.3169883709584 0  108.9074432239236 207.1671010373836 0  220.5720127415848 50.49955878540568 0  158.125 212.0507489358795 0  298.3241685800227 19.92532511913531 0  185.3221978412222 96.68339618410094 0  412.4519729278904 209.4248580501447 0  274.1738920716169 159.217064567428 0  403.4781347620879 120.7127519736874 0  20.93621385892612 20.94120733380504 0  166.8293384969646 56.63670149999503 0  341.479767153161 70.23811138666234 0  400.1582184552973 44.37696845529732 0  400.7509203675542 22.15797308529143 0  359.375 16.38058056473082 0  443.7315188172043 43.125 0  438.7306787634408 21.20363445195976 0  323.7678481218715 112.570003749188 0  20.25483630952381 92.62462797619048 0  439.7841549077186 63.98549864212896 0  279.177439762644 68.43630790635697 0  53.33580000656684 183.4295500065668 0  15.56313775510204 186.875 0  444.9404761904762 100.625 0  143.6999719921501 108.558721643371 0  244.375 15.06041948851499 0  77.40540914977345 146.2727593428248 0  54.72667686873653 144.8915646858923 0  158.125 15.07936041079952 0  74.4456351169972 183.5097649408325 0  191.1339395338053 56.63595861205837 0  445.0123388887304 129.375 0  210.7248543991798 19.33779761904762 0  183.2974011275217 182.5823167312002 0  143.8799204491785 182.6961074543494 0  241.296300829145 47.14740332816287 0  42.22848074943751 214.2721954437742 0  380.9855105599578 85.46099100088045 0  365.2026984672074 112.1940478915925 0  224.1748779301735 109.8626702724739 0  0 215.625 0  14.375 230 0  19.52359693877551 208.4375 0  143.7749568167813 149.9469772659014 0  211.1342982973045 154.8029693264055 0  110.3979722804183 163.3137745997345 0  413.2079081632653 167.0727040816327 0  236.5021258161125 93.93024954265758 0  208.5400246394231 190.7174235167066 0  312.5172113226196 152.4771113557333 0  330.625 230 0  320.9399502772997 209.6862748613502 0  341.0435077728013 89.88791531945972 0  148.4726044777241 31.84654022179769 0  236.7608705626344 211.378962986996 0  422.4332481764061 139.8210036471878 0  104.3275008095843 94.53395148558985 0  15.0663891717825 131.5933830651 0  220.0955807905945 175.5259350921386 0  364.3184252718784 41.4263905675604 0  182.5659498480579 162.7172268051663 0  419.6500153969792 18.06787155979224 0  280.420201824179 103.282663013124 0  251.2675328263435 82.01802736862957 0  159.4478535689941 170.7272334282816 0  167.4670989377785 133.2622262037262 0  42.98510011227545 76.50818675149701 0  317.7195842685465 191.2035421342732 0  74.794921875 215.2256944444445 0  419.2862389284259 102.1957240324589 0  350.2453338930509 133.2477790694337 0  45.92569717030636 161.8242514172715 0  17.4436142091783 151.5345682961473 0  271.311727282975 49.05090875163205 0  88.75013332868068 130.3171773250162 0  107.6139781197239 127.7326211745453 0  252.5606240361194 187.2523124126202 0  388.0636472383238 131.5976600037677 0  356.7683199596332 168.1841362800129 0  113.228897032215 18.85430148389248 0  460 215.625 0  176.7247577951166 211.8856501853634 0  286.8558795789178 129.7884552898662 0  388.125 0 0  155.8029125833878 70.78934836267172 0  138.0032447996199 76.3479590945378 0  329.8801056766752 158.599254802278 0  382.9360801926067 48.62052372805487 0  308.2794403729646 50.16323214205009 0  322.4615892168427 17.38218611676204 0  331.9114504656585 40.58070351276173 0  120.6034584466553 100.5222155600706 0  254.6930816304185 126.7736311933373 0  261.8286841743371 104.0350256231249 0  196.2692577649282 83.26427279366999 0  218.8468067626832 82.37828408295026 0  123.8842220807202 215.4001066821503 0  169.8759514330351 88.19767178660514 0  135.9587456244293 93.2254077196764 0  184.5008698533835 36.0909906635727 0  386.0893588967575 148.5940036904934 0  303.8825242448765 129.1377629905618 0  325.1261224851256 74.76301359587242 0  159.943120876288 103.5383978895761 0  34.16905740604483 57.10102657346616 0  309.7993248693551 103.35036799025 0  337.1159448373231 214.439637244807 0  183.5754855625937 127.8769252958712 0  353.9482430139633 192.5641447580855 0  124.2543402580161 66.87847785683566 0  353.3267993060434 100.8203635765456 0  377.6846790341158 213.2651224948827 0  148.044124484167 198.8090351667366 0  335.3727237607297 140.3419258596717 0  100.7515202591971 193.1048693703276 0  140.2483585821863 213.9491856033204 0  59.40263673755108 17.33143213864795 0  56.68868463606323 34.32665249494163 0  69.6150413325705 44.6379892252172 0  141.1349516133175 16.66122580665873 0  244.7743055555556 151.7361111111111 0  236.6517022661642 175.212374022285 0  94.19486281922106 215.2256944444444 0  136.8688780700754 42.97181096496232 0  290.1110807264307 188.8403385471387 0  294.6875 215.625 0  115 35.9375 0  445.625 165.3125 0  443.2584356550227 146.2043713100454 0  445.625 230 0  374.0829335522405 197.5378421206226 0  384.0362827264174 184.349372133555 0  400.4548386266506 185.6226234076177 0  276.9204289247867 142.9537619084728 0  385.9012742795829 15.94330856408212 0  71.875 0 0  430.0789089834493 51.34528400805922 0  368.5562879046764 95.66199600729279 0  310.1464092690141 80.12214691802883 0  87.08214193476978 35.12798695149547 0  80.21392137691853 14.52332527794175 0  54.28139617309787 65.54531637573159 0  129.375 0 0  333.1084841065431 124.9291897777846 0  154.886449279018 46.28870713431899 0  303.9053648036797 181.8296389799132 0  222.2121816519538 143.6488523916297 0  415.6843573559178 78.64615791786515 0  229.9829237515223 124.0369794736712 0  400.5108218125739 105.3246647395311 0  273.125 230 0  446.07421875 193.61328125 0  186.875 230 0  265.9375 216.5416606869499 0  388.125 230 0  398.4096155716716 215.3271237915036 0  80.27395112786832 161.9562883553053 0  177.567757166135 196.6038057671047 0  201.2193214246095 214.1418677974245 0  0 100.625 0  444.9404761904762 79.61373162447724 0  38.17114641335224 179.36016034100
[...]
<PointData  Scalars="h"> 
<DataArray  type="Float64"  Name="h"  format="ascii">8.5000000000000000e+00  8.5000000000000000e+00  1.0000000000000000e+01  1.0000000000000000e+01  1.0575563957637160e+01  1.0575522800761624e+01  9.9255142169605666e+00  9.9253116173544313e+00  8.5000000000000000e+00  1.0000000000000000e+01  1.0601993438149782e+01  1.0602271910233826e+01  1.0332739086575231e+01  1.0601802621721060e+01  9.6525625655337244e+00  1.0638083022923414e+01  9.4146742262232834e+00  1.0000000000000000e+01  1.0385204881677664e+01  1.0000000000000000e+01  1.0385040502567412e+01  1.0664189188043721e+01  1.0586609345423664e+01  1.0332976984079851e+01  1.0432186629640492e+01  1.0053423165019373e+01  1.0473729769104198e+01  1.0663202826983229e+01  1.0384878722980753e+01  1.0150966095407616e+01  1.0663871027801347e+01  1.0651970622211504e+01  9.3286954101273132e+00  8.5000000000000000e+00  8.5000000000000000e+00  9.3290341967247539e+00  1.0333077229598008e+01  1.0535722534799092e+01  1.0473544105419469e+01  1.0597336489466290e+01  9.9988902016733014e+00  1.0638218837372525e+01  9.2391455114669405e+00  1.0655861473495365e+01  9.1215492046867617e+00  9.7949338940721731e+00  1.0664093377443400e+01  1.0529181538145867e+01  1.0305149765588796e+01  1.0223718419264989e+01  9.4822235621761539e+00  9.0013557660302475e+00  9.6522590666804540e+00  1.0379859356657605e+01  9.0387670059964673e+00  1.0268811836206471e+01  1.0467962912724653e+01  1.0651996516222912e+01  1.0283702076585630e+01  1.0293828508249787e+01  1.0487623349036948e+01  1.0652325601116882e+01  1.0588408738622157e+01  9.7918846311084291e+00  1.0596832916624997e+01  8.9472394529435260e+00  1.0563041023902283e+01  1.0613567208761593e+01  1.0652277863276872e+01  1.0645688748094416e+01  1.0059768145733157e+01  1.0501214677198011e+01  1.0577377132150763e+01  1.0664441949205914e+01  1.0662552850948424e+01  9.9731960356051221e+00  1.0305687473234977e+01  1.0617800275279526e+01  1.0473592238378167e+01  1.0043404469742963e+01  1.0245929292804846e+01  1.0214655232278300e+01  8.5000000000000000e+00  1.0646883154889066e+01  1.0208969337505168e+01  1.0638054078783183e+01  9.6529760834268128e+00  9.5082785588101313e+00  1.0000000000000000e+01  1.0214823838633444e+01  1.0530034729675672e+01  1.0442121058369406e+01  1.0573950906184820e+01  1.0652109821795852e+01  1.0151020516564607e+01  1.0513581827521552e+01  1.0214997506548592e+01  1.0151010647044897e+01  9.6525278751015335e+00  8.5000000000000000e+00  1.0000000000000000e+01  8.5000000000000000e+00  1.0638451351806930e+01  1.0473806676147881e+01  8.9476158925355715e+00  8.5000000000000000e+00  1.0000000000000000e+01  1.0432584029610856e+01  1.0000000000000000e+01  1.0513522808464531e+01  1.0663471173255241e+01  9.7115070740129337e+00  8.8890079478751911e+00  8.9324347993817508e+00  1.0437207662437714e+01  8.8725192482333224e+00  9.1450941061982540e+00  1.0186320585598441e+01  9.7512596189176843e+00  1.0638216742866652e+01  1.0499768738847585e+01  1.0429981504409518e+01  9.3598065721835297e+00  1.0653581757547162e+01  9.5566572458729215e+00  9.3777380883029728e+00  1.0631851671045041e+01  1.0520951081817271e+01  1.0295037697203700e+01  1.0375013858419177e+01  1.0529737694368496e+01  1.0614428600050655e+01  1.0642540259680754e+01  1.0005757796796276e+01  1.0664092600482187e+01  1.0555878916623307e+01  9.9148761299297021e+00  1.0531191130354117e+01  1.0409303882556419e+01  1.0614307838476888e+01  8.9007330452562492e+00  9.2171139764772523e+00  9.4629556860872004e+00  1.0655827343996641e+01  9.7353076791260076e+00  1.0165535470559863e+01  1.0190186828139774e+01  9.9858927541638227e+00  9.7863806047028863e+00  1.0660793247685096e+01  1.0633351114623403e+01  1.0664636195135481e+01  1.0593519884376391e+01  1.0450973184490687e+01  9.8715606349931022e+00  1.0546012704907781e+01  1.0247247498986154e+01  1.0663774883167534e+01  1.0400925678151470e+01  1.0331001423808811e+01  1.0656641374002895e+01  1.0380045584995184e+01  8.8326622428154948e+00  1.0300398353975190e+01  1.0609958610530301e+01  1.0396725036301111e+01  1.0393815333608462e+01  1.0562647458240406e+01  1.0127230030117087e+01  1.0163219087771749e+01  1.0642450193218076e+01  8.8226728041226217e+00  1.0155937217979304e+01  1.0660232536412579e+01  9.2772158145557118e+00  8.7508639508419073e+00  1.0118133734434227e+01  1.0150458807961208e+01  1.0611253717246294e+01  9.5585951289234803e+00  9.2943484346019893e+00  1.0247014211599000e+01  9.5263603097963330e+00  1.0428930491956269e+01  1.0117661154027683e+01  1.0511541502665626e+01  1.0390754321307265e+01  1.0151806519216501e+01  1.0604593899395091e+01  9.1338471124875031e+00  1.0484772133608855e+01  1.0543831305097033e+01  1.0557767789960824e+01  8.5000000000000000e+00  8.7325846488900325e+00  8.8114051110317551e+00  1.0151257798706576e+01  1.0512828897732616e+01  9.8848492538877650e+00  1.0326791423507599e+01  1.0592666199727960e+01  1.0503315645449318e+01  1.0655652024798082e+01  1.0631852896458694e+01  1.0646173147594613e+01  1.0610951238454213e+01  1.0183561780895138e+01  1.0593508378487126e+01  1.0271600674484494e+01  9.8297021347576514e+00  8.7429077257031285e+00  1.0544506340494490e+01  1.0546682643493764e+01  1.0387035901474103e+01  1.0288659638589245e+01  1.0660597166280919e+01  1.0625550658212207e+01  1.0255524049443363e+01  1.0303933691700580e+01  9.1436689412757026e+00  1.0650180245059836e+01  9.5300033775145820e+00  1.0290577645219109e+01  1.0588618463797324e+01  9.1823696176084244e+00  8.7795584452722899e+00  1.0653940137480005e+01  9.6784434457416761e+00  9.8597034215252659e+00  1.0628128466980938e+01  1.0454585094032270e+01  1.0570440104442863e+01  9.9098235823460197e+00  1.0000000000000000e+01  1.0356184346463753e+01  1.0663446567145005e+01  1.0454728569032032e+01  1.0232245130175562e+01  1.0109490365112238e+01  1.0632943600601870e+01  1.0476727288301257e+01  1.0658946665703652e+01  1.0644230050703200e+01  1.0629433193976711e+01  9.9726551887986421e+00  1.0631975001561241e+01  1.0642870378691860e+01  1.0452026213673067e+01  1.0540327919326000e+01  9.9995381248049053e+00  1.0317889878296743e+01  1.0094002288217949e+01  1.0396343673692472e+01  1.0463301991791143e+01  1.0661355273258733e+01  1.0640317249776620e+01  1.0258618456246230e+01  9.0235872424977792e+00  1.0657705406722854e+01  1.0619269652396444e+01  1.0391885256914858e+01  1.0578492367140148e+01  1.0002951675249120e+01  1.0580370805370263e+01  1.0498244257877303e+01  1.0180615120209440e+01  1.0622863790224269e+01  9.7962886299005216e+00  1.0125904456251767e+01  9.3515317473554287e+00  9.3187515498293703e+00  9.4718157867899500e+00  1.0132004078374488e+01  1.0612308252792245e+01  1.0593012465686980e+01  9.7328199455483304e+00  1.0100765891055126e+01  1.0664097599048295e+01  1.0664264735852695e+01  9.9253879102382658e+00  1.0112927997687125e+01  1.0130673862943903e+01  1.0113234783731830e+01  1.0512160570232027e+01  1.0472103809296847e+01  1.0395564638220538e+01  1.0658773912536418e+01  1.0464224555184552e+01  9.4976869891081073e+00  1.0222263443925749e+01  1.0532395886952774e+01  1.0657184258506641e+01  9.6610893161715321e+00  9.5890708317729292e+00  9.2891350060739875e+00  1.0044056857225138e+01  1.0627177772640607e+01  1.0226261101013332e+01  1.0661291937939609e+01  1.0551445298252411e+01  1.0312447745942439e+01  1.0575116589853103e+01  1.0395234748660938e+01  1.0655494042945641e+01  1.0109822967121895e+01  1.0408505918507691e+01  1.0648042469037346e+01  1.0454220061337123e+01  1.0405563557006925e+01  9.5894005573250336e+00  1.0360631441954764e+01  1.0473653757532714e+01  8.5000000000000000e+00  1.0118148375361466e+01  9.0789823462071979e+00  1.0039812379261731e+01  1.0492844856944224e+01  1.0113065624314840e+01  1.0000000000000000e+01  1.0579696127755208e+01  1.0663037815154089e+01  1.0530633056831210e+01  1.0611856050916492e+01  1.0573837362604742e+01  1.0497549353772545e+01  1.0559439091116035e+01  1.0571540441014854e+01  1.0468246416650368e+01  8.7323893696552410e+00  8.5000000000000000e+00  9.7954224511790482e+00  8.7242382580469151e+00  9.5900351286390251e+00  1.0493891059036677e+01  1.0331389130956623e+01  1.0163741636994798e+01  1.0511088989412803e+01  1.0638257388954846e+01  1.0655673856232562e+01  1.0662467684780678e+01  1.0611534864251817e+01  8.8006544613672233e+00  1.0318799940299726e+01  1.0113378611188914e+01  1.0043576999117638e+01  9.4973788834205415e+00  1.0305411040706955e+01  8.5000000000000000e+00  1.0529668649301051e+01  1.0000000000000000e+01  1.0247695556267383e+01  1.0000000000000000e+01  1.0000000000000000e+01  1.0000000000000000e+01  1.0562674315113281e+01  1.0662648905810199e+01  1.0247685774214817e+01  1.0656045257257439e+01  1.0408487230257073e+01  1.0611679759172524e+01  1.0529332617948013e+01  1.0562711793174183e+01  9.1457839241641761e+00  8.5000000000000000e+00  8.5000000000000000e+00  1.0305365503168220e+01  8.5000000000000000e+00  9.1458316635158123e+00  8.5000000000000000e+00  1.0631794323933670e+01  9.7951369140971529e+00  1.0662773074946880e+01  1.0000000000000000e+01  1.0000000000000000e+01  8.7118149419135271e+00  1.0246427208436730e+01  1.0622393349424140e+01  1.0410210526121991e+01  1.0363625936613946e+01  9.7042290110170875e+00  9.6469353867585834e+00  9.1823522374860413e+00  9.7582826833746914e+00  1.0255806012649568e+01  9.3122595320593220e+00  8.9845028581965352e+00  8.7119724215259655e+00  1.0663377695267789e+01  9.8478041434068739e+00  1.0493653316174852e+01  9.8824965098145388e+00  9.6760942939258836e+00  9.6739183588707434e+00  1.0550919032089981e+01  1.0024290605376549e+01  1.0452026530174107e+01  1.0105226779595682e+01  1.0231302926141122e+01  1.0662453689988119e+01  1.0261243869179294e+01  8.9918504461074615e+00  1.0658102849258158e+01  9.8681236996349391e+00  1.0586466857959278e+01  1.0664093654999709e+01  1.0637145254155657e+01  1.0582340290031659e+01  9.1401170295772385e+00  8.9739394815578049e+00  1.0659285179138891e+01  8.6923245145592070e+00  9.0085341449357426e+00  1.0115509867737554e+01  1.0623792587056542e+01  1.0095795277797377e+01  1.0621414470888583e+01  1.0442202638497593e+01  1.0368302397389421e+01  1.0616654828546110e+01  1.0632498730669109e+01  1.0644529949419134e+01  1.0548692838103371e+01  1.0341002916749161e+01  1.0537723013135080e+01  1.0658352128786722e+01  1.0348875956322912e+01  1.0206417927888712e+01  1.0377220075346472e+01  1.0336795285183637e+01  1.0650003723625757e+01  1.0662611275866867e+01  9.0568705998615453e+00  1.0517725786074751e+01  1.0453200141095193e+01  1.0657036270617102e+01  9.3053371777035192e+00  9.5053203620082822e+00  9.1935552647077827e+00  1.0617861911436073e+01  1.0335213829924614e+01  1.0550247251717749e+01  1.0663223645918714e+01  1.0654402136115522e+01  1.0373643279502950e+01  1.0323539969740642e+01  1.0663840420598694e+01  1.0232026393572154e+01  1.0514401384773398e+01  9.3864055669928881e+00  1.0642345274076694e+01  9.4364689983129768e+00  1.0563138038587052e+01  9.3305510908087808e+00  9.3818746433391560e+00  1.0386054657372011e+01  1.0439858371212738e+01  1.0504577058985276e+01  1.0312973689084631e+01  1.0442763619458738e+01  1.0662930158263762e+01  1.0635107978303004e+01  1.0643934067983224e+01  9.5312867996160904e+00  9.4441108392741473e+00  1.0370973479175642e+01  8.7142966123009646e+00  8.9614861438848852e+00  9.9816065779185710e+00  1.0644502596835924e+01  1.0203177114247737e+01  1.0273001209299485e+01  1.0567731606610407e+01  1.0553280621247008e+01  9.8349505613085597e+00  9.1363345190713776e+00  1.0637570072297315e+01  1.0353916266631376e+01  9.2344817118597025e+00  1.0614428445801899e+01  1.0661259032750246e+01  1.0191093108194389e+01  1.0607247881438337e+01  1.0607433629465095e+01  1.0303308931334930e+01  1.0539463816435102e+01  1.0592275030514431e+01  1.0564050967895545e+01  1.0623657742090089e+01  1.0646702863099550e+01  1.0416652308258289e+01  9.9066037378479574e+00  1.0008367650241487e+01  1.0574157345637262e+01  1.0491302723840947e+01  9.8987195313999887e+00  1.0064589162729678e+01  1.0317357803724798e+01  9.8434574254923888e+00  9.9508798690345834e+00  9.8046983659860167e+00  9.9878271058260406e+00  1.0663899600679654e+01  1.0371406748580299e+01  1.0463760183947031e+01  1.0467429700787632e+01  9.0924850487855533e+00  1.0656036526678930e+01  9.6074494818099136e+00  1.0605165492243790e+01  1.0566105486529727e+01  1.0447527985912950e+01  1.0635538178090204e+01  8.9308788134447052e+00  8.8653719732103884e+00  1.0308204814715788e+01  1.0234383165251320e+01  8.6819418693681794e+00  1.0431767079952666e+01  9.2390236444108034e+00  9.3815203679049368e+00  8.6904285083847217e+00  8.6531986688874483e+00  1.0395346340287732e+01  1.0454751343100593e+01  8.8417411849337988e+00  1.0606401279299440e+01  1.0610734930438975e+01  1.0664122391342937e+01  8.9937485644288007e+00  9.5607175727229841e+00  9.6806725543114691e+00  1.0464369748047616e+01  1.0658512497485923e+01  8.9181941230223956e+00  1.0308067816086716e+01  1.0229269624346237e+01  9.4455126891359580e+00  9.5694352995782879e+00  9.7623964299006722e+00  1.0649041507227285e+01  1.0420979793346348e+01  1.0443004851774440e+01  1.0200335999350941e+01  1.0304295360380038e+01  9.4263226495430192e+00  1.0346177599510145e+01  9.2087534623646370e+00  1.0645867645461434e+01  8.8065885866027678e+00  1.0065967607916562e+01  1.0620578998083349e+01  1.0582486327843862e+01  9.6995453782556744e+00  9.8176108712700429e+00  1.0486627907207707e+01  1.0192342028317311e+01  1.0086139661386701e+01  1.0662791230468107e+01  1.0664247054515538e+01  1.0017203192447310e+01  1.0062397482319071e+01  1.0656590715061773e+01  1.0610369995463735e+01  1.0524729289829503e+01  1.0565034350388551e+01  1.0400874811748650e+01  1.0499002325338180e+01  1.0542413438637711e+01  1.0637198953174515e+01  1.0075615367755161e+01  1.0085276991162905e+01  1.0348609073354806e+01  1.0642811461982919e+01  1.0188026629896978e+01  1.0220206267166803e+01  1.0265182432736909e+01  1.0379194890525815e+01  8.8417306588567826e+00  8.6709298988031893e+00  9.5243398547307248e+00  9.4056389972435639e+00  1.0118047522268460e+01  9.7446879424796027e+00  9.9290597842737043e+00  1.0514099928159158e+01  1.0441149469344035e+01  1.0326275614257614e+01  8.6707159878045026e+00  1.0662105761940257e+01  1.0591078365368745e+01  1.0536054806764147e+01  8.6707379636464346e+00  9.3141396440380628e+00  1.0631331799149567e+01  1.0245557382688101e+01  1.0192071621946742e+01  1.0488384641597591e+01  1.0650787895492060e+01  9.1682188912662301e+00  8.6455194637654529e+00  9.6306486428970022e+00  1.0095559638569698e+01  1.0085485305118773e+01  1.0086568922558451e+01  1.0626996151965507e+01  1.0595444780080362e+01  1.0588799666342362e+01  1.0218101348206044e+01  1.0420285905793147e+01  1.0664231573079364e+01  1.0659216921828087e+01  1.0548819653731385e+01  8.9933861084926239e+00  1.0512323426934230e+01  9.2522834248603569e+00  1.0349402859590109e+01  9.1551825111325886e+00  1.0644144602347765e+01  1.0646692854736473e+01  1.0625025786043167e+01  1.0087749253450639e+01  1.0118632178987678e+01  1.0214162499676116e+01  9.4147599903174903e+00  1.0192284298326841e+01  1.0653146650764471e+01  1.0664187592447472e+01  9.0407959242767006e+00  1.0524454843201118e+01  1.0587441145847297e+01  1.0524270701541614e+01  1.0502592219234726e+01  1.0541888810083012e+01  1.0634954374474065e+01  8.6282900893469758e+00  1.0626739668186080e+01  1.0664272265701220e+01  9.4250264873793963e+00  1.0575424119654915e+01  1.0602749059636986e+01  1.0561541961117904e+01  1.0429133098370674e+01  1.0545391847054105e+01  1.0226580309440523e+01  1.0191275071002531e+01  1.0085366587927734e+01  9.4773801274426877e+00  1.0621131163458195e+01  1.0593983085767031e+01  1.0641065240076035e+01  9.1033345323148289e+00  1.0631091311152781e+01  1.0654810459542663e+01  1.0277428206188656e+01  1.0291363100042979e+01  1.0187499375660410e+01  1.0453904065890143e+01  1.0594677999908297e+01  1.0593525341097974e+01  1.0178548711385179e+01  1.0536466863100816e+01  1.0174009568129135e+01  1.0060402746280609e+01  1.0546184268285224e+01  1.0163416836820003e+01  1.0357815739018434e+01  9.8028929929137938e+00  1.0371744110785015e+01  1.0340912954368624e+01  1.0416022485875148e+01  1.0626310240759159e+01  1.0508160466207705e+01  1.0060485771364792e+01  1.0657141516702268e+01  1.0576323073820253e+01  9.8441508874931269e+00  9.9018872928710753e+00  1.0087538290847672e+01  9.9071556496324469e+00  1.0060230548494710e+01  1.0060568395186873e+01  1.0648242883477804e+01  1.0060676578197848e+01  1.0244828506985685e+01  1.0303496372442376e+01  1.0588761804440001e+01  1.0491604471409875e+01  1.0479004824512030e+01  1.0425315574432943e+01  9.5572330519655058e+00  9.6175567559421609e+00  1.0329583269110918e+01  9.8244595196828310e+00  1.0570848874206863e+01  1.0575913129365208e+01  1.0607019105593912e+01  1.0383532913627219e+01  1.0279314434674518e+01  9.3514295176373068e+00  1.0600506793479928e+01  8.8386394861816857e+00  8.6759137178870507e+00  1.0547924754386671e+01  1.0486186957386662e+01  9.6703781139193676e+00  9.7703786768028529e+00  8.6364372078144402e+00  1.0507538088905678e+01  1.0516044257577228e+01  1.0663182406968611e+01  1.0607092107274388e+01  1.0243090293071132e+01  1.0579235320385395e+01  1.0647582577408883e+01  9.7565634369762559e+00  9.9213204432055768e+00  1.0412381576643583e+01  1.0445643454788227e+01  1.0107534967228794e+01  1.0614856889020997e+01  1.0466768323119085e+01  9.0098132097874668e+00  1.0658478720123782e+01  1.0539217243083131e+01  1.0652920602756156e+01  1.0485096703898193e+01  9.6474618234196949e+00  1.0662281414210311e+01  1.0653435675370609e+01  1.0584528309397040e+01  1.0614159145232984e+01  9.9922221086723013e+00  1.0192413371339496e+01  1.0289849293914617e+01  1.0466250815638910e+01  1.0491410382142108e+01  1.0421160959727786e+01  1.0654543263960898e+01  1.0157468708559975e+01  1.0663242654211775e+01  9.9412420031881918e+00  1.0493837910337305e+01  1.0616290699863935e+01  1.0628650253192230e+01  1.0360729494969831e+01  8.8594821459895687e+00  1.0410653673982468e+01  8.8375692270095456e+00  1.0663053680678287e+01  9.6345865147530674e+00  1.0579693541234855e+01  1.0113476108482319e+01  1.0098670257700524e+01  1.0068707447515276e+01  1.0112934664163623e+01  1.0195243657984500e+01  1.0244887238683601e+01  9.9754269553974435e+00  1.0339535451044288e+01  9.8427403859797096e+00  1.0657708030649065e+01  1.0657456096801468e+01  1.0663985189033621e+01  1.0483929132476328e+01  1.0505505082320257e+01  1.0145577241195449e+01  1.0507197585375742e+01  9.5958623729153061e+00  1.0635664911399457e+01  9.0832819702019592e+00  9.6510620802541993e+00  9.7406326246294004e+00  1.0344056706965844e+01  1.0254760368252860e+01  9.3507695963634028e+00  1.0418993539813513e+01  1.0399243752377641e+01  8.8375945211186426e+00  1.0512652045221744e+01  1.0570033842301465e+01  1.0264142350595195e+01  1.0627842849964210e+01  1.0605558318370267e+01  9.7466957117421131e+00  1.0473921037568850e+01  9.9406572316244972e+00  1.0472928841202465e+01  9.7044022504553400e+00  1.0587481144807921e+01  1.0561277950610311e+01  1.0663302379980109e+01  1.0531870020333699e+01  1.0310507457635930e+01  1.0299888612584274e+01  1.0250445105775254e+01  1.0057854109731725e+01  9.9839235227089915e+00  9.9502109690604783e+00  1.0593945155964587e+01  1.0539061156355952e+01  1.0433357513133041e+01  9.5500284905990824e+00  1.0664023223630570e+01  1.0664177339666928e+01  9.1213680877252052e+00  1.0649632052310965e+01  1.0661326905981328e+01  9.4699423432337380e+00  1.0349219231802484e+01  1.0175917330752748e+01  1.0056563004423268e+01  1.0018688553621875e+01  1.0178297017244587e+01  1.0142172312023908e+01  8.6277434186272703e+00  1.0653752451829405e+01  1.0388506171059676e+01  1.0489561409471778e+01  1.0664387412886560e+01  9.2949950650781563e+00  1.0386182197430779e+01  1.0332119515654698e+01  1.0458305836559402e+01  1.0216556763723627e+01  9.3248562167788904e+00  1.0644717571412540e+01  1.0644929518378882e+01  1.0659801294102921e+01  9.4904248571523411e+00  1.0020960244506369e+01  1