<?xml version="1.0"?>
<VTKFile type="UnstructuredGrid"  version="0.1"  >
<UnstructuredGrid>
<Piece  NumberOfPoints="5307" NumberOfCells="10063">
<Points>
<DataArray  type="Float64"  NumberOfComponents="3"  format="ascii">0 10 0  0 0 0  100 0 0  100 10 0  50 0 0  50 10 0  25 0 0  25 10 0  75 10 0  75 0 0  37.5 10 0  37.5 0 0  12.5 10 0  12.5 0 0  62.5 0 0  62.5 10 0  87.5 0 0  87.5 10 0  68.75 10 0  68.75 0 0  56.25 10 0  56.25 0 0  6.25 0 0  6.25 10 0  18.75 0 0  18.75 10 0  31.25 0 0  31.25 10 0  43.75 0 0  43.75 10 0  81.25 0 0  81.25 10 0  93.75 10 0  93.75 0 0  84.375 5 0  78.125 5 0  34.375 5 0  28.125 5 0  21.875 5 0  15.625 5 0  9.375 5 0  0 5 0  40.625 5 0  46.875 5 0  53.125 5 0  59.375 5 0  65.625 5 0  71.875 5 0  90.625 5 0  100 5 0  4.6875 4.453125 0  95.3125 5.546875 0  3.125 10 0  96.875 0 0  3.125 0 0  96.875 10 0  100 7.5 0  87.5 6.5234375 0  87.15625 3.26171875 0  84.375 0 0  90.625 10 0  62.5 6.5234375 0  62.15625 3.26171875 0  59.375 0 0  68.75 3.4765625 0  68.40625 6.73828125 0  65.625 10 0  71.875 0 0  65.625 0 0  59.375 10 0  56.25 6.5234375 0  55.90625 3.26171875 0  53.125 0 0  50 6.5234375 0  49.65625 3.26171875 0  46.875 0 0  53.125 10 0  43.75 6.5234375 0  43.40625 3.26171875 0  40.625 0 0  46.875 10 0  37.5 6.5234375 0  37.15625 3.26171875 0  34.375 0 0  40.625 10 0  9.375 0 0  12.5 3.4765625 0  12.15625 6.73828125 0  9.375 10 0  15.625 0 0  18.75 3.4765625 0  18.40625 6.73828125 0  15.625 10 0  21.875 0 0  25 3.4765625 0  24.65625 6.73828125 0  21.875 10 0  28.125 0 0  28.125 10 0  31.25 6.5234375 0  30.90625 3.26171875 0  34.375 10 0  75 3.4765625 0  74.65625 6.73828125 0  71.875 10 0  78.125 0 0  78.125 10 0  81.25 6.5234375 0  80.90625 3.26171875 0  90.625 0 0  84.375 10 0  97.40776699029126 3.143583131067961 0  92.1875 7.5 0  92.1875 2.5 0  0 2.5 0  2.592233009708738 6.856416868932039 0  7.25 2.8515625 0  6.782766990291262 6.856416868932039 0  94.84670937186905 2.423724607418158 0  89.63594872172794 2.643561701079966 0  2.229817708333333 3.75 0  97.77018229166667 6.25 0  0 7.5 0  83.45789124085023 2.5 0  78.496337890625 2.5 0  78.840087890625 7.5 0  72.590087890625 2.5 0  33.45789124085022 2.5 0  28.496337890625 2.5 0  28.840087890625 7.5 0  22.590087890625 2.5 0  16.340087890625 2.5 0  10.090087890625 2.5 0  39.909912109375 7.5 0  39.70789124085022 2.5 0  46.159912109375 7.5 0  45.95789124085022 2.5 0  52.409912109375 7.5 0  52.20789124085022 2.5 0  65.996337890625 7.5 0  85.090087890625 7.5 0  58.45789124085022 2.5 0  58.659912109375 7.5 0  66.340087890625 2.5 0  35.090087890625 7.5 0  9.204515475671268 7.5 0  14.70789124085023 7.5 0  20.95789124085022 7.5 0  70.95789124085023 7.5 0  100 2.5 0  4.6875 8.118253610726054 0  89.70334101382488 7.685681883640553 0  4.9677734375 2.05078125 0  93.02821601941747 4.763728762135923 0  94.53125 7.7734375 0  82.8125 8.26171875 0  32.8125 8.26171875 0  42.13608787615672 8.21550560497233 0  48.38608787615672 8.21550560497233 0  54.63608787615672 8.21550560497233 0  60.88608787615672 8.21550560497233 0  70.3125 1.73828125 0  14.0625 1.73828125 0  20.3125 1.73828125 0  76.5625 8.200799930095673 0  26.5625 8.200799930095673 0  64.05370048634059 1.81271643224308 0  63.89903131525873 8.26171875 0  76.5625 0 0  26.5625 0 0  73.02168012941601 8.161130148525988 0  23.021680129416 8.161130148525984 0  16.77168012941601 8.161130148525984 0  35.9375 0 0  42.1875 0 0  48.4375 0 0  54.6875 0 0  60.9375 0 0  85.9375 0 0  10.9375 10 0  7.336316747572815 4.891315230582524 0  98.4375 0 0  1.5625 10 0  1.5625 0 0  98.08265015870887 8.306437698386087 0  82.58710430305985 4.237660226422153 0  76.07474599252299 5.238802290978471 0  32.58710430305985 4.237660226422157 0  26.074745992523 5.238802290978471 0  19.824745992523 5.238802290978471 0  13.574745992523 5.238802290978471 0  38.83710430305985 4.237660226422157 0  45.08710430305985 4.237660226422157 0  51.33710430305985 4.237660226422157 0  57.58710430305985 4.237660226422157 0  69.82474599252299 5.238802290978471 0  64.0615310157384 3.789815460447877 0  88.75652355519991 4.398459561477484 0  7.8125 10 0  3.011990291140283 1.954869700666445 0  25.78125 1.73828125 0  75.78125 1.73828125 0  60.48261925064409 2.028521403501848 0  54.23261925064409 2.028521403501848 0  47.98261925064409 2.028521403501848 0  41.73261925064409 2.028521403501848 0  35.48261925064409 2.028521403501848 0  85.48261925064409 2.028521403501847 0  67.1875 10 0  29.6875 0 0  79.6875 0 0  64.39032206506398 6.434174268079966 0  5.011463911382537 6.285689305363027 0  76.89875322765772 3.527410626866467 0  26.89875322765772 3.527410626866466 0  21.02169938849521 3.403655887996305 0  14.77169938849521 3.403655887996305 0  71.02169938849521 3.403655887996305 0  83.1272668838501 6.407394409179688 0  33.1272668838501 6.407394409179688 0  96.26931005513372 8.290734481438195 0  77.26806847159668 6.563455329109079 0  27.26806847159668 6.56345532910908 0  8.535921414752991 1.592276112500859 0  60.18262322415116 6.583278773374907 0  53.93262322415116 6.583278773374907 0  47.68262322415116 6.583278773374907 0  41.43262322415116 6.583278773374907 0  11.71875 8.433362181886228 0  67.56954193768611 8.284197013692298 0  30.46875 1.566637818113773 0  80.46875 1.566637818113773 0  69.34564775596677 8.246105735569857 0  18.5643310546875 1.73828125 0  12.3143310546875 1.73828125 0  68.5643310546875 1.73828125 0  31.0643310546875 8.26171875 0  81.0643310546875 8.26171875 0  35.85613945093048 5.928612183988764 0  67.10613945093047 4.071387816011236 0  56.37849947023514 8.26171875 0  85.85613945093047 5.928612183988764 0  86.8015782376841 8.26171875 0  50.12849947023514 8.26171875 0  43.87849947023514 8.26171875 0  36.80157823768409 8.26171875 0  10.85613945093048 4.071387816011236 0  17.10613945093048 4.071387816011236 0  23.35613945093048 4.071387816011236 0  73.35613945093047 4.071387816011236 0  80.058837890625 5 0  30.058837890625 5 0  42.558837890625 5 0  48.808837890625 5 0  55.058837890625 5 0  61.308837890625 5 0  39.0625 10 0  23.4375 0 0  73.4375 0 0  57.8125 10 0  51.5625 10 0  45.3125 10 0  57.88650319535959 5.946768293606445 0  51.63650319535959 5.946768293606445 0  45.38650319535959 5.946768293606445 0  39.13650319535959 5.946768293606445 0  89.26135952226929 6.033018746614475 0  17.1875 0 0  10.9375 0 0  67.1875 0 0  29.6875 10 0  79.6875 10 0  89.0625 0 0  88.08652108632187 1.71078614816925 0  93.50285939903868 6.406852472525566 0  72.93023816446407 6.405759561857474 0  16.68023816446408 6.405759561857471 0  22.93023816446408 6.405759561857471 0  82.15230772395584 1.428077818175184 0  13.40230772395585 8.571922181824817 0  19.33265752246126 8.289621029818454 0  57.8125 0 0  56.83265752246126 1.710378970181546 0  51.5625 0 0  50.58265752246126 1.710378970181546 0  45.3125 0 0  44.33265752246126 1.710378970181546 0  39.0625 0 0  38.08265752246126 1.710378970181546 0  32.15230772395584 1.428077818175183 0  2.34375 8.51546678481219 0  7.03125 8.51546678481219 0  98.43522885804312 1.739700713723055 0  74.17142502861478 2.0594668316808 0  24.17142502861478 2.0594668316808 0  85.51736619148977 3.733645281383639 0  35.51736619148978 3.73364528138364 0  87.19142286486648 4.906985056606887 0  37.33341418505795 4.892020701904073 0  24.65517453132884 8.387367740261151 0  74.65517453132885 8.387367740261151 0  62.42024164762008 1.64056747678511 0  10.47698684329657 6.330961675725494 0  66.87653720878555 6.091681090943114 0  8.25107448540845 6.209509040314017 0  38.48561971730206 8.410836408489761 0  89.0625 10 0  95.82054159658414 3.874795528975266 0  96.43417793456939 1.6916470814584 0  0 6.25 0  1.682870019215211 5.388159890776699 0  3.571656595966212 5.595303346549767 0  98.31712998078478 4.611840109223301 0  95.3125 0 0  60.3419189453125 3.668247284720478 0  54.0919189453125 3.668247284720478 0  47.8419189453125 3.668247284720478 0  41.5919189453125 3.668247284720478 0  27.34375 1.393621456623077 0  77.34375 1.393621456623077 0  63.38555271916189 5.216484236021472 0  95.3125 10 0  17.1875 10 0  23.4375 10 0  73.4375 10 0  64.0625 0 0  20.3125 0 0  14.0625 0 0  70.3125 0 0  60.9375 10 0  54.6875 10 0  48.4375 10 0  42.1875 10 0  4.6875 0 0  7.8125 0 0  4.6875 10 0  92.1875 0 0  92.1875 10 0  82.8125 10 0  32.8125 10 0  76.5625 10 0  26.5625 10 0  64.0625 10 0  98.4375 10 0  70.3125 10 0  85.9375 10 0  35.9375 10 0  82.8125 0 0  14.0625 10 0  20.3125 10 0  32.8125 0 0  96.7759727997305 5.078312969016884 0  1.533347852251798 2.378565849770013 0  10.20543259498282 8.656817521151531 0  7.020438547445331 1.330942526512322 0  8.415458220207348 3.823946210376733 0  5.78857421875 3.3640625 0  62.39561226153715 8.039588512747011 0  3.683558808923369 3.315453861845787 0  68.24603582686859 5.166036996071479 0  74.49603582686859 5.166036996071479 0  11.6019847712954 5.358136885663414 0  18.2460358268686 5.16603699607148 0  24.4960358268686 5.16603699607148 0  93.54072691564843 3.285410403737232 0  88.22258619048807 7.82321407624439 0  92.96875 8.75 0  92.96875 1.25 0  0 8.75 0  91.92899481804547 5.923284488721583 0  91.01356929126761 8.504574557042263 0  91.73556447248464 3.955821545302902 0  90.85668081570562 1.593480740183989 0  79.0919189453125 3.866043090820312 0  29.0919189453125 3.866043090820312 0  96.30023381535662 6.741196919027414 0  94.47412084080383 4.378922440888022 0  8.449307624801387 8.717037010597934 0  90.89382386907772 6.902551458427929 0  0 1.25 0  79.8070068359375 6.424302673339843 0  29.8070068359375 6.424302673339843 0  78.90625 1.161535274982452 0  28.90625 1.161535274982452 0  86.71875 1.223775230857092 0  36.71875 1.220574054568305 0  42.95530482663914 1.237436992711651 0  49.20530482663914 1.237436992711651 0  55.45530482663914 1.237436992711651 0  6.199788120475032 5.63168189526235 0  89.3802434306193 1.3150521080661 0  17.96875 8.856888365468031 0  98.81895982737015 3.285297603259957 0  1.220837842446709 6.875 0  69.72944183558666 6.960454303788452 0  82.20552351009552 2.959422966220663 0  59.26374142049457 1.377403208103852 0  58.8394720
[...]
<PointData  Scalars="h"> 
<DataArray  type="Float64"  Name="h"  format="ascii">5.0000000000000000e-01  5.0000000000000000e-01  1.5000000000000000e+00  1.5000000000000000e+00  4.6863379086838179e+00  4.6863664002613863e+00  4.1962833256091328e+00  4.1962754855231834e+00  4.0103244699849796e+00  4.0103217700534497e+00  4.6034121593248249e+00  4.6034049606234495e+00  3.2973809600118944e+00  3.2974167706073940e+00  4.4920167632416579e+00  4.4920116753851991e+00  3.1551526994282910e+00  3.1551904111218292e+00  4.2899263750400847e+00  4.2899342903244158e+00  4.6232534859362353e+00  4.6232256602077548e+00  2.4784765420953985e+00  2.4787185398026654e+00  3.8292470710164737e+00  3.8291888433063468e+00  4.4463027787708587e+00  4.4463051974306662e+00  4.6809110304964321e+00  4.6809409550681904e+00  3.6402899128264048e+00  3.6402940412217411e+00  2.5006107962748501e+00  2.5007014979774405e+00  3.4144887161711304e+00  3.8377688227140854e+00  4.5354959294194783e+00  4.3340794771244964e+00  4.0295791813688284e+00  3.5886921376251872e+00  2.9385187882587238e+00  5.0000000000000000e-01  4.6515480976937287e+00  4.6923662856966368e+00  4.6632821488143614e+00  4.5662460877746236e+00  4.4001423134655537e+00  4.1604254475513587e+00  2.8548740597126496e+00  1.5000000000000000e+00  2.1900376349913744e+00  2.2967993823796924e+00  1.8368073807843270e+00  2.0686181221046240e+00  1.8364872956351195e+00  2.0686417110545690e+00  1.5000000000000002e+00  3.1552246373711759e+00  3.1856020942456196e+00  3.4144253619359106e+00  2.8548494437619270e+00  4.4920462419164879e+00  4.5010686807423834e+00  4.5662178962162265e+00  4.2899358931520517e+00  4.3030194464958207e+00  4.4001199160770996e+00  4.1604241681539875e+00  4.4001190730314139e+00  4.5662376389045543e+00  4.6232717357715103e+00  4.6284909375738748e+00  4.6632552753391137e+00  4.6863843404652545e+00  4.6878723702722942e+00  4.6923381555634176e+00  4.6632776685614692e+00  4.6809597931241695e+00  4.6786108112285696e+00  4.6515199933857057e+00  4.6923616584603964e+00  4.6034126886007281e+00  4.5969475091724998e+00  4.5354354362606939e+00  4.6515168191382559e+00  2.9382616209259167e+00  3.2973698417496538e+00  3.2617070515612312e+00  2.9382770054259164e+00  3.5885800230710867e+00  3.8292637750590934e+00  3.8049599337693985e+00  3.5886008675764769e+00  4.0295417127877604e+00  4.1962798064421607e+00  4.1794766593831829e+00  4.0295589677796260e+00  4.3340536658543156e+00  4.3340631449685585e+00  4.4463313239479225e+00  4.4351702479958162e+00  4.5354501467156121e+00  4.0103407156281081e+00  4.0279263043996441e+00  4.1604146158303994e+00  3.8377413484301468e+00  3.8377580910101248e+00  3.6403240721330490e+00  3.6633902942857173e+00  2.8547853216553278e+00  3.4144267820559824e+00  1.9840923646093287e+00  2.6856246193966515e+00  2.6856721878035401e+00  5.0000000000000000e-01  1.6942556891598510e+00  2.6398535342263600e+00  2.5666114096554722e+00  2.3598518491689555e+00  2.9550033859823022e+00  1.5871403443102337e+00  1.9238781014593023e+00  5.0000000000000000e-01  3.4839504649284510e+00  3.8156878926253843e+00  3.7948908428505530e+00  4.1279660763860289e+00  4.5115682817447418e+00  4.3487186522887349e+00  4.3619214359868792e+00  4.0704762158139527e+00  3.6477502528130179e+00  3.0278884928021106e+00  4.6422213873232057e+00  4.6394421446838150e+00  4.6913063099614005e+00  4.6908579032383813e+00  4.6700625486186143e+00  4.6718346633262913e+00  4.3880273623454773e+00  3.3583202846572822e+00  4.5847646894636203e+00  4.5807974059674565e+00  4.3765753983844533e+00  4.5528376555697045e+00  2.9163667285902091e+00  3.5090908701481571e+00  3.9745040023940406e+00  4.2005156693238064e+00  1.5000000000000000e+00  2.1901024052012796e+00  2.9483289596036384e+00  2.2459546658453649e+00  2.5882909430572694e+00  2.4014626039796831e+00  3.5312358489900983e+00  4.4936734498869564e+00  4.6680711476431922e+00  4.6916215588951511e+00  4.6460462723810938e+00  4.5325087080994200e+00  4.2277003499156374e+00  3.4502625045067497e+00  3.9340135997357959e+00  3.9270214989077630e+00  4.2686048754754147e+00  4.4486017151536492e+00  4.4531123862277155e+00  3.9269884149963810e+00  4.2685684878764905e+00  4.1078538450344553e+00  4.0943601279008215e+00  3.6822341593400560e+00  4.5719598642919577e+00  4.6685042394982403e+00  4.6914905807884857e+00  4.6453565345165062e+00  4.5312802918935517e+00  3.2893496129410553e+00  3.1279441639742833e+00  2.6534653079303205e+00  1.8082218379041985e+00  1.3650859125306714e+00  1.3656035798790760e+00  1.8708505729408245e+00  3.5473828106009080e+00  3.9536352825608141e+00  4.4871779298819456e+00  4.2467658544571760e+00  3.9022981433527639e+00  3.4041997896724903e+00  4.6263795634287428e+00  4.6880050482783266e+00  4.6785803443033558e+00  4.6009616947581380e+00  4.2476353199228285e+00  4.4483715144858680e+00  3.0400084607580160e+00  2.7243435200416748e+00  1.8077743940428896e+00  4.2333188357446980e+00  3.9693914063224298e+00  4.5419335712856341e+00  4.6510278251950448e+00  4.6922080091025409e+00  4.6640639901811971e+00  4.5619020384875908e+00  3.3267331938814788e+00  4.3473677381708979e+00  4.3932476848146207e+00  3.7423681180613868e+00  4.4386102417571518e+00  2.2543950945789786e+00  3.9083203820941392e+00  4.2832473376624556e+00  3.9784707797173016e+00  3.5147442958982356e+00  4.1977960036021127e+00  3.5083127289845781e+00  4.5024998577976216e+00  2.1603361199087638e+00  3.8874686833058494e+00  4.2989803830285167e+00  2.8268826740229245e+00  4.5487461192501888e+00  4.6545779842503849e+00  4.6924876757384997e+00  4.6609098413615069e+00  3.2150035356060096e+00  4.3338045723984813e+00  4.4205186003614738e+00  3.6921964413796804e+00  4.2667682608253985e+00  3.8162201628828614e+00  3.2782827833077741e+00  4.2970597816545002e+00  4.4403380602779432e+00  3.6528277885285423e+00  4.5702280003382256e+00  4.3502628304118440e+00  4.6212311412844418e+00  3.2961050215419680e+00  3.2164341646852215e+00  4.6857381224652315e+00  4.6817452470705581e+00  4.5900137922204562e+00  3.1186322531960262e+00  3.7082870937734822e+00  4.1124696160131853e+00  4.0919656431574669e+00  3.7187463461763621e+00  4.4064144619399546e+00  4.6719028109000362e+00  4.6906899385386156e+00  4.6405153478318750e+00  4.5223784510507210e+00  4.6298449739115579e+00  4.1167671133424397e+00  4.0880395063449511e+00  4.5968595654059792e+00  4.6769251928308684e+00  4.6888376033467738e+00  4.5955200137795176e+00  4.6763858924388559e+00  4.6891159706967009e+00  4.6310083953987480e+00  2.9916833927151441e+00  3.7144522854258990e+00  3.1277149237711215e+00  4.3473619385214803e+00  4.3931879972600196e+00  3.7423037683510523e+00  3.0107649163771879e+00  3.1023549040135019e+00  2.5310551658956775e+00  4.1121456574906121e+00  3.6749711713729352e+00  4.0894203252227586e+00  3.5782246038712793e+00  3.3876143456105914e+00  3.8694890435171687e+00  4.5968838510887107e+00  4.6139426089028035e+00  4.6769469622510780e+00  4.6833773068143270e+00  4.6888597790034341e+00  4.6844405019088020e+00  4.6298824850110458e+00  4.6138728207095232e+00  4.4743363541379049e+00  1.6221699078627791e+00  2.6060432937341664e+00  1.8086964973215929e+00  4.0522282971835715e+00  4.1550626168327653e+00  3.3239323394528539e+00  4.5626823981755749e+00  3.1824828344796949e+00  4.6003146861541646e+00  4.1793880496901759e+00  4.0279435178650109e+00  4.4941374183207703e+00  3.0742742863645995e+00  4.3582677745836111e+00  2.7873510834210586e+00  4.6206989490924375e+00  3.0107416101136080e+00  2.2255908514704097e+00  2.1359805067327549e+00  5.0000000000000000e-01  1.4085478241726106e+00  1.9462520398412568e+00  1.8295917933640793e+00  2.2967402358111491e+00  4.5451301319171433e+00  4.6527139125144821e+00  4.6923606104091871e+00  4.6626273739999498e+00  4.3021255302552994e+00  3.8831151964678958e+00  4.4678111931056952e+00  2.2966170465744398e+00  3.7145142169356826e+00  4.1167798907043922e+00  4.0880488514483684e+00  4.4483000407442823e+00  3.9339462477755038e+00  3.4501938340730085e+00  4.2276658336551893e+00  4.5313151540442576e+00  4.6453674183000615e+00  4.6915019912975966e+00  4.6685199902160965e+00  2.1899374694194984e+00  2.7243148609440953e+00  2.1899395481441042e+00  2.6855328177062714e+00  2.6855980821219467e+00  3.5311796485022953e+00  4.4936345793316423e+00  3.9269772541380910e+00  4.2685591772427909e+00  4.4483236984673491e+00  1.8080431288018004e+00  4.2276563610237776e+00  3.2894273196459558e+00  4.5719667900582630e+00  3.5311749915931583e+00  3.4501875856832740e+00  3.9339497979532521e+00  4.4936402249611360e+00  2.0839976951792178e+00  1.3559321073350563e+00  3.0418402640380475e+00  2.6043597305874702e+00  2.8101697465183881e+00  2.3986956481910715e+00  4.4947819969611960e+00  1.9724610320889282e+00  4.3089977188813071e+00  4.0359944629323312e+00  3.2022056588579053e+00  3.7934276144618941e+00  4.1714542136348181e+00  2.5264994216588308e+00  3.0897996935927368e+00  2.5952994528956919e+00  2.5952981276489009e+00  5.0000000000000000e-01  2.7147103626336491e+00  2.8140867401233978e+00  2.7360787051831350e+00  2.8306783482115994e+00  3.7794891229014040e+00  4.3714234466161956e+00  2.1557800614515679e+00  2.4088263879479923e+00  2.8148829539665234e+00  2.8267634989427557e+00  5.0000000000000000e-01  3.7347935144409936e+00  4.3975094073244705e+00  3.7908406663956957e+00  4.3644147828368425e+00  3.2235574617699450e+00  4.5883530549865945e+00  4.6752099298574397e+00  4.6895419409918313e+00  4.6350580376443267e+00  2.4702471471720462e+00  2.9801261670368691e+00  3.7732159055104302e+00  1.7382399049660129e+00  1.2343274504009178e+00  4.2515158736539087e+00  3.5744942916020266e+00  4.5685952783573569e+00  4.5772288654006186e+00  4.6643905779800541e+00  4.6684434106464430e+00  4.6922559216486741e+00  4.6916581907147616e+00  4.6501594912812649e+00  4.6446689033951287e+00  3.9748134809837570e+00  4.5326753742266526e+00  4.5217577691813329e+00  4.0212277170396717e+00  3.5094309250037830e+00  3.5766181695574342e+00  3.3999793890198227e+00  3.8994423216980754e+00  4.4742165933051865e+00  4.1730845737123179e+00  3.4230868689644280e+00  3.4553763423075292e+00  4.1667834643816368e+00  2.4014445177762629e+00  3.5798675458666529e+00  4.6197421353271029e+00  4.6852886733237380e+00  4.6823658442966156e+00  4.4736607476190011e+00  4.5638234784606615e+00  4.5303176613769702e+00  3.3198597686636115e+00  3.4302829885953487e+00  3.7908569562801655e+00  4.3644312090760371e+00  4.6886596809769205e+00  4.6773814803821896e+00  4.5979421355279664e+00  4.6402353512646064e+00  4.0741529780122061e+00  4.1249012154483049e+00  3.7159557135966090e+00  3.1300099083146602e+00  4.3467430353592293e+00  4.6205053343720950e+00  4.6862669174946587e+00  4.6811929225837794e+00  4.6078342816959301e+00  4.4054862972642441e+00  4.2426558777215293e+00  3.9585222850033537e+00  4.3908935649155021e+00  4.6871891708772413e+00  4.6798951056559863e+00  4.6043679224901437e+00  3.6125133487432928e+00  3.7456135213479080e+00  3.1741340010465824e+00  4.5375103548584930e+00  3.4081591258000903e+00  4.5628844466700089e+00  4.6616592239624142e+00  4.6924797477671847e+00  4.3306501742274826e+00  4.3743319467946140e+00  4.4168768068001283e+00  2.0518415439136670e+00  1.5000000000000000e+00  5.0000000000000000e-01  1.7552625380234850e+00  1.5000000000000000e+00  2.9239039597410001e+00  3.0738122713519598e+00  4.4470731918415707e+00  3.6387722559175244e+00  4.6238597513432254e+00  3.8140237000003041e+00  4.3497733537093373e+00  3.7368838814417535e+00  4.3963420582656179e+00  2.8225379191183282e+00  3.2532885486922947e+00  4.5811682291563827e+00  4.3999053578839984e+00  2.7401773457362322e+00  1.5000000000000000e+00  1.5000000000000000e+00  2.0138407508722538e+00  2.9344467731216186e+00  4.6328621175484255e+00  4.6895240044991509e+00  4.6754594013321880e+00  4.5932763645017642e+00  2.9735941845266245e+00  4.6547252848920451e+00  2.4254315559368944e+00  2.3408116015357958e+00  2.0234063663872717e+00  3.1138599408221546e+00  4.5192038971596720e+00  3.4626847762304482e+00  3.8656029099806952e+00  4.3147750976974182e+00  1.5136684049165887e+00  3.6168404128791947e+00  4.1452889107170083e+00  4.0491054482508710e+00  2.9837501609377526e+00  3.9452571860988339e+00  4.0115993136036385e+00  4.1739485430725516e+00  2.4012742589373328e+00  4.2204321680810910e+00  4.6752987851958290e+00  4.6894926388582023e+00  4.6348624670879026e+00  4.5122242359870830e+00  3.5494435391544732e+00  4.5412202748523240e+00  3.3964188057146014e+00  4.4163395673490200e+00  4.4745179015904517e+00  3.9748256227812493e+00  4.2285775787434918e+00  4.6476346834637070e+00  4.6920400489295409e+00  4.6663526171095890e+00  4.5726613561563560e+00  4.1067611972923848e+00  4.0956347074400483e+00  3.6840064469144935e+00  1.9970303440994008e+00  2.4516398828484447e+00  2.5485772754731908e+00  2.3251754973536194e+00  3.0937642767952731e+00  1.1968265890525283e+00  3.7195923822378090e+00  4.4058736430350507e+00  1.7259301384742940e+00  1.1902891911750149e+00  4.5168240540539335e+00  4.6757885649109232e+00  4.6892994893864426e+00  4.6340237040450445e+00  4.1461180884675430e+00  4.4707387052130594e+00  3.5867384217456433e+00  3.5931640539669183e+00  4.4678837940686247e+00  4.2594020849548242e+00  4.2631227336327919e+00  3.3757571165838427e+00  3.3666941716663543e+00  3.8827787601392987e+00  3.8765979534940453e+00  1.9771711806012924e+00  3.0471201504405538e+00  4.4695602496763271e+00  4.6401936012242615e+00  4.6906245110787426e+00  4.6721025024182774e+00  4.4801666471648334e+00  2.4773339604130875e+00  3.8685716158844308e+00  4.3127138065611259e+00  3.4989687612054992e+00  4.5060261527844521e+00  4.3423952533361767e+00  1.8623364403645515e+00  3.9074947878745463e+00  3.4116126267117934e+00  4.2444712517441330e+00  2.2066179745038705e+00  1.8670473356946371e+00  3.0763761011317370e+00  4.0284852196332590e+00  3.5870633983260674e+00  4.4345864780143538e+00  2.4476895988164706e+00  3.7201802548865541e+00  4.4056203725946812e+00  4.4262293967161028e+00  3.5211246054667855e+00  2.4809821554153757e+00  2.8779622892080807e+00  4.4238148091188698e+00  4.4778853290962930e+00  4.4711219690056501e+00  4.5245092605434234e+00  2.9361983852819984e+00  3.6321982095906082e+00  3.2814271875314120e+00  4.5763477977741118e+00  4.0498725640066757e+00  4.1574677173709080e+00  4.3300047485093573e+00  3.8438094252184318e+00  4.2037630495067280e+00  3.9698511609632017e+00  3.5022789050844274e+00  3.3098861617053577e+00  4.6534194220307823e+00  4.6924715646389625e+00  4.6617060822974512e+00  4.5630002611418599e+00  2.4917137649863044e+00  4.5222409946976194e+00  2.3095734930204448e+00  4.6071769317068103e+00  4.0751809900824183e+00  3.6544932090427111e+00  4.1241096839724722e+00  3.8812847742856404e+00  4.3034815063058920e+00  4.0812542198536406e+00  4.1242843697906428e+00  4.5543757302761065e+00  4.6606129258392288e+00  4.6924766558878943e+00  4.6548556849751117e+00  4.5492965457038013e+00  3.3530158889971524e+00  4.1430832923291092e+00  3.7317728433123309e+00  4.0638343440948228e+00  3.9828520747388332e+00  4.1946922303734828e+00  4.5453694605680504e+00  3.8000794668228042e+00  4.6622442864931379e+00  4.5812173227389659e+00  4.6702556640633803e+00  4.6912694176950467e+00  2.7226972876290305e+00  4.5587382271290675e+00  4.6596164035646517e+00  4.6925603484804093e+00  4.5045399480192367e+00  3.5022881702346522e+00  3.9594748926019308e+00  4.2418202828864180e+00  2.1998464041407675e+00  1.9767069430529363e+00  4.6142848795184106e+00  4.4957789043597982e+00  4.5965834492913649e+00  3.3025353652360074e+00  3.1868294164926128e+00  4.3153549574182550e+00  3.2265019368479066e+00  3.7809697051373359e+00  4.3005400560434630e+00  3.4841380256172072e+00  1.9430739373907262e+00  2.0223337793791889e+00  3.2713084657649665e+00  4.5667991069667577e+00  4.6661630960073452e+00  4.6919457134677653e+00  4.6484964752468221e+00  4.6702697842047778e+00  4.6911412928367913e+00  4.6429702975311082e+00  4.5268380501338932e+00  4.5767008658833026e+00  3.3089279301933794e+00  4.6286825152838871e+00  4.6879304128385488e+00  4.6785236625010143e+00  3.0269098021540484e+00  4.2204798848629101e+00  4.6129785946512571e+00  4.6830328666960641e+00  4.6847298893623961e+00  3.8946242764323746e+00  4.2184159971459394e+00  3.8550387344907406e+00  3.3351761272450520e+00  4.2115830001512879e+00  4.2936127715192036e+00  3.9938253348399373e+00  3.9862433493095839e+00  4.2725316052222837e+00  4.4498386686829123e+00  1.0558038700958321e+00  4.5462116575418623e+00  2.8027264590696963e+00  2.6177526958150175e+00  2.6310814766073527e+00  1.6754356328169098e+00  4.2777949604506418e+00  3.8511867431093068e+00  1.9934974199073889e+00  4.3466686396496872e+00  2.2572603489561711e+00  4.0498712182342453e+00  4.0733140689801681e+00  4.1574675347407508e+00  4.1329485442775526e+00  3.6592262088012837e+00  4.4371678291743333e+00  1.6954981193993981e+00  4.2593992917479859e+00  1.1363893290320521e+00  1.6611713221279165e+00  1.1172082110387940e+00  4.0656646596605190e+00  4.1410894235104703e+00  3.7418654663679525e+00  2.3537369200807925e+00  3.1365829771539731e+00  4.6923027096867074e+00  4.6518710610741367e+00  4.5434980197140975e+00  4.4468504414582064e+00  2.7032003872906665e+00  3.7794605834044943e+00  4.3713976643268184e+00  3.8827922478044079e+00  4.6172464166998370e+00  4.6854512222231834e+00  4.6821838495357966e+00  4.6105954406899405e+00  2.7126719532684151e+00  3.0618055797758674e+00  4.0060448829276085e+00  4.2002950776022594e+00  4.2786599320561018e+00  3.9141850812858299e+00  2.9603726839865900e+00  3.1140836041836186e+00  2.1860183382402032e+00  2.0408582426530932e+00  1.7439181824761134e+00  1.8221210604569806e+00  1.4886242638670582e+00  2.2681003566837878e+00  4.6780586678242315e+00  4.6881639964281696e+00  4.6295963656159094e+00  4.4631456891252164e+00  4.6118737749826826e+00  4.6837408488542360e+00  4.6840974200693095e+00  4.6160522663118693e+00  4.4973694157432478e+00  4.6394108764345869e+00  4.6908546728353304e+00  4.6718340323195902e+00  4.5847656806431010e+00  4.6527222541194018e+00  4.6923692652814868e+00  4.6626273464964250e+00  3.2234902534313226e+00  4.5826082427019417e+00  3.4737750904218410e+00  4.5152019921200583e+00  4.4245397637977542e+00  4.2055206289231428e+00  4.0004089362607376e+00  4.5092441241417962e+00  4.4088984203924024e+00  3.7141080021745476e+00  2.6252087183828814e+00  2.8209309534424185e+00  2.2987279395441069e+00  1.6935300443169234e+00  4.2005619582599492e+00  3.9340222547568331e+00  4.2629356649517876e+00  4.0003610964990486e+00  4.2056184790816085e+00  3.9744248419574015e+00  3.5027654321918895e+00  4.5046195889572349e+00  1.0288779482603481e+00  1.6932489201499521e+00  4.4664945635500164e+00  1.6744880918781415e+00  1.0194767744289837e+00  3.2457932634921671e+00  4.4753760984252953e+00  3.5757449746001901e+00  3.4737704379854448e+00  4.6050638738382661e+00  3.1778719509805686e+00  4.1946861984985579e+00  2.4016415271563560e+00  2.1997055998637425e+00  3.9828273786826998e+00  3.9581195744420121e+00  4.2430078373063020e+00  4.5820726532505418e+00  4.6706155860207872e+00  4.6911307937279201e+00  4.6412796779184982e+00  4.6707517061718846e+00  4.6910205697995684e+00  4.6422748722215950e+00  2.9254961126927603e+00  4.0284650353188782e+00  3.6104285071387929e+00  4.5421436519191243e+00  4.5717491829067605e+00  3.2903947139689249e+00  4.6542902439155984e+00  4.6924524329335036e+00  4.6611628908905534e+00  4.5934917112809357e+00  4.6755617985178901e+00  4.6895127035619399e+00  3.5141703905966852e+00  3.0003570003186040e+00  4.6688058603641798e+00  4.6613665395942876e+00  4.6914750325681753e+00  4.6450143726858464e+00  3.6025702776153228e+00  1.6147530924920082e+00  4.5159574542467222e+00  4.5827694392152285e+00  3.9383243438925204e+00  3.4565401168450420e+00  4.2248561241655151e+00  2.8956565445766786e+00  4.1656819933936005e+00  4.0226993875041108e+00  1.8503726501402571e+00  3.1466469723797448e+00  3.0299159217857388e+00  4.6219771099566698e+00  4.6859788442144090e+00  4.6814663090126158e+00  4.6051860501967150e+00  3.9240968802611831e+00  3